# vtk DataFile Version 2.0
Example Teapot data file
ASCII
DATASET POLYDATA
POINTS 250 FLOAT
     -4.000000   -6.000000    0
      4.000000   -6.000000    0
      4.000000    0.000000    0
     -4.000000    0.000000    0
     -0.128727   -2.991680    2
     -0.136403   -3.219181    0
      0.096188   -3.198843    0
      0.152252   -2.988342    2
     -0.406089   -2.913834    2
    -0.361262   -3.156228    0
    -0.253318   -3.417644    0
    -0.017606   -3.442158    0
     0.234592   -3.408617    0
     0.333209   -3.150557    0
     0.441279   -2.897370    2
     0.688427   -2.725306    2
    -0.649196   -2.760621    2
    -0.713813   -2.969410    0
    -0.609561   -3.175552    0
    -0.485472   -3.406640    0
    -0.377214   -3.647151    0
    -0.146062   -3.655477    0
     0.123857   -3.637984    0
     0.375120   -3.628964    0
     0.487985   -3.392308    0
     0.586172   -3.142784    0
     0.729024   -2.953943    0
     0.934195   -2.720632    0
    -0.886602   -2.762936    0
    -0.991473   -2.971923    0
    -0.856277   -3.177555    0
    -0.730939   -3.409837    0
    -0.624861   -3.638508    0
    -0.500801   -3.879567    0
    -0.258798   -3.884793    0
     0.000107   -3.870664    0
     0.249247   -3.860750    0
     0.494821   -3.868416    0
     0.591168   -3.626799    0
     0.706874   -3.400914    0
     0.819790   -3.193276    0
     0.971841   -2.983277    0
     1.121908   -2.802465    0
     0.869510   -2.493915    2
    -0.844786   -2.535104    2
    -1.103820   -2.758047    0
    -1.250909   -2.973722    0
    -1.095943   -3.196622    0
    -0.965470   -3.433439    0
    -0.871842   -3.662790    0
    -0.751828   -3.873817    0
    -0.631183   -4.121066    0
    -0.399582   -4.106669    0
    -0.156009   -4.122079    0
     0.111629   -4.105526    0
     0.361674   -4.088325    0
     0.602393   -4.107256    0
     0.719625   -3.872380    0
     0.847483   -3.643631    0
     0.962884   -3.430394    0
     1.079353   -3.217741    0
     1.228770   -3.006143    0
     1.364955   -2.794081    0
     1.214233   -2.587581    0
     1.105680   -2.395814    0
     0.976932   -2.213549    2
    -0.967516   -2.252808    2
    -1.075653   -2.485125    0
    -1.260698   -2.567757    0
    -1.382906   -2.788806    0
    -1.492916   -2.997842    0
    -1.350151   -3.200077    0
    -1.218654   -3.433228    0
    -1.086971   -3.643963    0
    -1.028665   -3.874203    0
    -0.880210   -4.113133    0
    -0.765865   -4.347974    0
    -0.513304   -4.359186    0
    -0.278406   -4.348621    0
    -0.021060   -4.340317    0
     0.233365   -4.343008    0
     0.471966   -4.337121    0
     0.715328   -4.348614    0
     0.822708   -4.111868    0
     0.963311   -3.883502    0
     1.078677   -3.648832    0
     1.238198   -3.450989    0
     1.349042   -3.232139    0
     1.473316   -3.019224    0
     1.606379   -2.778480    0
     1.457514   -2.548720    0
     1.324859   -2.338518    0
     1.195325   -2.120463    0
     0.997936   -1.935787    2
     0.954788   -1.702712    2
     0.844508   -1.464457    2
    -0.842329   -1.461036    2
    -0.954951   -1.703237    2
    -0.999002   -1.955333    2
    -1.181470   -2.141645    0
    -1.297339   -2.338425    0
    -1.489623   -2.547891    0
    -1.613408   -2.772685    0
    -1.746426   -3.000019    0
    -1.620229   -3.223867    0
    -1.470486   -3.434082    0
    -1.376568   -3.657295    0
    -1.262938   -3.873433    0
    -1.119094   -4.099737    0
    -1.016618   -4.344541    0
    -0.891197   -4.582908    0
    -0.648369   -4.577204    0
    -0.396042   -4.587712    0
    -0.133836   -4.560333    0
     0.108591   -4.576669    0
     0.355103   -4.585879    0
     0.603020   -4.575388    0
     0.877624   -4.561254    0
     0.972513   -4.334628    0
     1.098854   -4.117132    0
     1.221539   -3.879681    0
     1.340518   -3.669683    0
     1.481946   -3.450418    0
     1.607887   -3.237458    0
     1.714683   -3.001005    0
     1.848054   -2.771486    0
     1.724269   -2.545227    0
     1.588498   -2.330787    0
     1.436667   -2.100904    0
     1.292153   -1.892446    0
     1.191262   -1.685284    0
     1.085741   -1.437068    0
     0.901239   -1.207284    0
     0.676934   -1.263956    2
    -0.684317   -1.270816    2
    -0.913526   -1.204419    0
    -1.087333   -1.438844    0
    -1.175711   -1.684200    0
    -1.291374   -1.900589    0
    -1.440747   -2.109156    0
    -1.585005   -2.329079    0
    -1.738681   -2.538483    0
   -1.868142   -2.771360    0
   -2.005083   -2.983081    0
   -1.873417   -3.217727    0
   -1.726719   -3.459346    0
   -1.620334   -3.664637    0
   -1.510778   -3.893198    0
   -1.389530   -4.113164    0
   -1.258523   -4.334149    0
   -1.138168   -4.571087    0
   -1.001698   -4.821228    0
   -0.761786   -4.818642    0
   -0.505264   -4.819912    0
   -0.242972   -4.805743    0
   -0.001934   -4.818069    0
    0.248134   -4.796121    0
    0.490548   -4.813877    0
    0.729017   -4.809628    0
    0.985933   -4.805358    0
    1.111858   -4.583851    0
    1.235755   -4.352066    0
    1.352613   -4.134587    0
    1.489535   -3.891340    0
    1.611595   -3.657125    0
    1.732441   -3.446819    0
    1.860257   -3.218158    0
    1.978188   -3.002367    0
    2.112290   -2.755542    0
    1.990206   -2.541160    0
    1.848878   -2.313599    0
    1.709956   -2.102709    0
    1.552098   -1.863099    0
    1.452499   -1.642813    0
    1.326602   -1.434810    0
    1.176776   -1.191732    0
    1.014647   -0.959219    0
    0.727669   -0.987445    0
    0.473607   -1.119264    2
    0.236565   -1.028384    2
   -0.247050   -1.030997    2
   -0.478278   -1.121792    2
   -0.723544   -0.994191    0
   -1.022856   -0.969553    0
   -1.182771   -1.200024    0
   -1.323814   -1.435872    0
   -1.445835   -1.663058    0
   -1.564708   -1.875663    0
   -1.700265   -2.088801    0
   -1.848093   -2.300329    0
   -1.978066   -2.530146    0
   -2.116782   -2.743182    0
   -2.249694   -2.995218    0
   -2.121137   -3.216604    0
   -1.977881   -3.438357    0
   -1.867677   -3.665093    0
   -1.738961   -3.887263    0
   -1.637775   -4.119355    0
   -1.510976   -4.365759    0
   -1.382806   -4.575652    0
   -1.263611   -4.826843    0
   -1.150059   -5.050381    0
   -0.885172   -5.066391    0
   -0.634001   -5.044412    0
   -0.374035   -5.050962    0
   -0.127230   -5.051233    0
    0.141534   -5.029559    0
    0.376831   -5.037227    0
    0.623328   -5.048904    0
    0.865455   -5.051942    0
    1.124453   -5.049461    0
    1.248623   -4.813923    0
    1.364920   -4.592560    0
    1.478576   -4.372606    0
    1.589702   -4.116554    0
    1.719553   -3.889973    0
    1.860842   -3.648003    0
    1.997733   -3.430922    0
    2.122733   -3.209687    0
    2.236206   -2.984519    0
    2.380746   -2.778255    0
    2.255016   -2.556016    0
    2.115203   -2.313593    0
    1.979146   -2.105162    0
    1.831971   -1.887370    0
    1.713660   -1.637863    0
    1.573073   -1.404351    0
    1.438369   -1.164628    0
    1.302249   -0.937728    0
    1.164504   -0.731183    0
    0.898063   -0.726862    0
    0.640506   -0.722264    0
    0.419065   -0.824816    0
    0.156668   -0.765313    0
   -0.006151   -1.000019    2
   -0.118871   -0.751457    0
   -0.403310   -0.831712    0
   -0.629644   -0.791148    0
   -0.903451   -0.749077    0
   -1.173671   -0.737264    0
   -1.307016   -0.954869    0
   -1.432619   -1.188677    0
   -1.587115   -1.431322    0
   -1.700913   -1.650746    0
   -1.830549   -1.868773    0
   -1.967851   -2.091376    0
   -2.119153   -2.314156    0
   -2.222181   -2.541225    0
   -2.382167   -2.770186    0
   -2.497404   -2.990552    0	

POINT_DATA 250
SCALARS X-dimension float
LOOKUP_TABLE default
     -4.000000   
      4.000000   
      4.000000    
     -4.000000    
     -0.128727   
     -0.136403   
      0.096188   
      0.152252   
     -0.406089   
    -0.361262   
    -0.253318   
    -0.017606   
     0.234592   
     0.333209   
     0.441279   
     0.688427   
    -0.649196   
    -0.713813   
    -0.609561   
    -0.485472   
    -0.377214   
    -0.146062  
     0.123857  
     0.375120  
     0.487985 
     0.586172   
     0.729024  
     0.934195  
    -0.886602 
    -0.991473  
    -0.856277   
    -0.730939  
    -0.624861  
    -0.500801  
    -0.258798   
     0.000107  
     0.249247  
     0.494821 
     0.591168  
     0.706874 
     0.819790  
     0.971841  
     1.121908  
     0.869510   
    -0.844786  
    -1.103820   
    -1.250909  
    -1.095943   
    -0.965470  
    -0.871842  
    -0.751828   
    -0.631183  
    -0.399582  
    -0.156009 
     0.111629  
     0.361674   
     0.602393   
     0.719625   
     0.847483  
     0.962884  
     1.079353 
     1.228770  
     1.364955   
     1.214233  
     1.105680  
     0.976932   
    -0.967516  
    -1.075653 
    -1.260698  
    -1.382906  
    -1.492916 
    -1.350151  
    -1.218654   
    -1.086971   
    -1.028665  
    -0.880210  
    -0.765865   
    -0.513304 
    -0.278406   
    -0.021060   
     0.233365   
     0.471966  
     0.715328  
     0.822708  
     0.963311  
     1.078677  
     1.238198 
     1.349042  
     1.473316  
     1.606379  
     1.457514  
     1.324859  
     1.195325  
     0.997936  
     0.954788  
     0.844508  
    -0.842329  
    -0.954951  
    -0.999002   
    -1.181470  
    -1.297339  
    -1.489623   
    -1.613408  
    -1.746426   
    -1.620229   
    -1.470486   
    -1.376568   
    -1.262938   
    -1.119094  
    -1.016618   
    -0.891197   
    -0.648369  
    -0.396042   
    -0.133836   
     0.108591  
     0.355103   
     0.603020   
     0.877624   
     0.972513   
     1.098854   
     1.221539   
     1.340518   
     1.481946  
     1.607887  
     1.714683  
     1.848054   
     1.724269   
     1.588498  
     1.436667  
     1.292153   
     1.191262  
     1.085741   
     0.901239  
     0.676934   
    -0.684317   
    -0.913526   
    -1.087333   
    -1.175711   
    -1.291374  
    -1.440747   
    -1.585005   
    -1.738681  
   -1.868142   
   -2.005083  
   -1.873417   
   -1.726719   
   -1.620334   
   -1.510778   
   -1.389530  
   -1.258523  
   -1.138168   
   -1.001698   
   -0.761786   
   -0.505264   
   -0.242972   
   -0.001934   
    0.248134   
    0.490548   
    0.729017   
    0.985933   
    1.111858   
    1.235755   
    1.352613   
    1.489535   
    1.611595   
    1.732441  
    1.860257   
    1.978188   
    2.112290   
    1.990206   
    1.848878   
    1.709956  
    1.552098   
    1.452499   
    1.326602   
    1.176776   
    1.014647   
    0.727669  
    0.473607   
    0.236565   
   -0.247050   
   -0.478278   
   -0.723544   
   -1.022856   
   -1.182771   
   -1.323814   
   -1.445835  
   -1.564708   
   -1.700265   
   -1.848093   
   -1.978066   
   -2.116782   
   -2.249694   
   -2.121137   
   -1.977881   
   -1.867677   
   -1.738961   
   -1.637775  
   -1.510976   
   -1.382806   
   -1.263611   
   -1.150059   
   -0.885172  
   -0.634001  
   -0.374035  
   -0.127230   
    0.141534   
    0.376831   
    0.623328   
    0.865455   
    1.124453   
    1.248623   
    1.364920   
    1.478576   
    1.589702   
    1.719553   
    1.860842   
    1.997733   
    2.122733   
    2.236206   
    2.380746   
    2.255016   
    2.115203   
    1.979146   
    1.831971   
    1.713660   
    1.573073   
    1.438369   
    1.302249   
    1.164504   
    0.898063  
    0.640506   
    0.419065   
    0.156668   
   -0.006151   
   -0.118871   
   -0.403310   
   -0.629644  
   -0.903451  
   -1.173671   
   -1.307016   
   -1.432619   
   -1.587115   
   -1.700913   
   -1.830549   
   -1.967851   
   -2.119153   
   -2.222181   
   -2.382167   
   -2.497404   











